# vtk DataFile Version 2.0)
Unstructured grid legacy vtk file with point scalar data
ASCII

DATASET UNSTRUCTURED_GRID
POINTS 100 double 
1.227660e-01 3.698730e-01 1.300886e-01 
3.013764e-02 4.448952e-01 4.124496e-01 
3.178790e-01 2.424277e-01 3.727745e-01 
3.574706e-01 3.585212e-01 4.215265e-01 
3.496965e-01 2.679998e-01 1.014915e-01 
1.795993e-01 2.257645e-01 3.832568e-01 
1.468436e-01 4.062284e-01 2.412917e-01 
5.107006e-01 3.289835e-01 4.380911e-01 
5.000663e-01 4.189693e-01 2.372106e-01 
1.031942e-01 2.620163e-01 4.690935e-01 
1.782032e-01 4.406956e-02 5.357797e-02 
2.536965e-01 1.814664e-01 2.991756e-01 
2.743638e-01 5.112100e-02 4.163248e-01 
7.228207e-02 4.086115e-02 3.929060e-01 
4.287885e-01 2.820788e-01 4.557479e-01 
3.469393e-01 2.446053e-02 1.820443e-01 
2.472040e-01 2.222596e-01 7.514493e-02 
3.605951e-01 2.261063e-01 4.754123e-01 
5.000300e-01 4.170060e-01 1.405577e-02 
3.170358e-01 1.270872e-01 1.299823e-01 
2.474719e-01 3.363110e-01 1.649976e-01 
1.626194e-01 1.732801e-01 1.403560e-02 
4.970005e-01 1.969824e-01 5.014197e-01 
4.967889e-01 2.392821e-01 2.270156e-01 
1.452466e-01 1.216312e-02 2.958795e-01 
1.264140e-01 4.346174e-01 3.615691e-01 
4.554358e-01 4.192061e-01 3.423456e-01 
1.706655e-01 2.763843e-01 2.718090e-01 
1.718107e-01 1.092692e-01 3.663246e-01 
3.549411e-01 4.925606e-01 3.644908e-01 
1.868450e-01 1.696452e-03 4.035693e-01 
2.743365e-01 4.659554e-01 4.558792e-01 
2.720731e-01 2.104065e-01 1.852977e-01 
2.454422e-01 4.178331e-01 3.395741e-01 
5.046363e-02 8.322609e-02 2.832491e-01 
1.758541e-01 4.461077e-01 1.381216e-01 
7.790961e-02 1.805405e-01 9.350891e-02 
1.188908e-01 5.027405e-01 4.849159e-01 
4.618895e-02 3.020283e-01 6.898162e-02 
2.714845e-01 1.133210e-01 1.991657e-02 
1.969541e-01 1.302879e-01 1.134549e-01 
1.781845e-01 8.006188e-02 4.731734e-01 
2.460670e-01 9.457774e-02 2.016902e-01 
1.770102e-01 3.151917e-01 4.940453e-02 
1.497644e-01 3.428729e-02 1.699161e-01 
4.331137e-01 4.133576e-02 4.229948e-01 
4.785167e-01 2.045234e-01 1.244092e-01 
4.584903e-01 1.440292e-01 2.621567e-01 
4.953848e-01 5.147175e-03 3.692765e-01 
7.149900e-02 7.984038e-02 2.582710e-02 
2.457470e-01 4.837125e-01 2.307273e-01 
4.803145e-01 1.850327e-02 6.037402e-03 
3.554881e-01 3.813605e-01 1.106503e-01 
3.823576e-01 1.966380e-01 1.689264e-01 
1.974077e-01 4.480806e-01 3.410936e-02 
4.089504e-02 4.791630e-01 3.082247e-01 
4.341120e-01 3.161215e-01 2.771309e-02 
2.866552e-01 3.051889e-01 2.886403e-01 
6.432104e-02 1.881320e-01 2.012920e-01 
3.767615e-01 5.259495e-02 6.222657e-02 
3.885647e-01 1.699846e-01 5.879930e-02 
3.574340e-01 2.803037e-01 2.115744e-01 
1.632554e-01 2.325338e-01 1.548696e-01 
4.472763e-01 1.381250e-02 2.711065e-01 
9.148702e-02 1.464797e-01 4.428984e-01 
1.407727e-02 7.878202e-02 1.545595e-01 
4.925562e-01 1.060551e-01 3.648853e-01 
3.722347e-01 1.200425e-01 3.589713e-01 
2.679405e-01 1.562658e-01 4.181281e-01 
4.673974e-01 1.052666e-01 5.617227e-02 
4.575289e-01 3.295282e-01 1.606662e-01 
2.142739e-01 3.675788e-01 4.639312e-01 
3.689903e-01 4.501183e-01 1.692025e-02 
4.465349e-01 3.108592e-01 2.919345e-01 
9.936563e-02 3.874369e-01 4.936676e-01 
2.723838e-01 5.687133e-02 3.065070e-01 
4.422664e-01 4.567553e-01 4.450597e-01 
4.108115e-01 1.142788e-01 1.498167e-01 
3.445227e-01 1.316430e-01 2.376395e-01 
3.772936e-03 8.844612e-02 4.565222e-01 
1.448637e-01 3.326859e-01 3.853196e-01 
3.397769e-02 3.975449e-01 1.565516e-01 
2.826194e-01 2.005829e-03 3.552703e-02 
4.791897e-02 3.568567e-01 3.198120e-01 
6.701181e-02 3.071238e-01 2.032945e-01 
2.759187e-01 4.595710e-01 1.235225e-01 
3.803800e-01 2.188499e-01 2.932629e-01 
2.442390e-01 3.090464e-01 3.829865e-01 
3.928355e-01 1.176965e-01 4.793794e-01 
3.483556e-01 2.815139e-02 4.719992e-01 
2.922343e-01 3.408232e-01 2.753622e-02 
1.506134e-01 1.340999e-01 2.483383e-01 
7.783413e-02 4.707794e-01 8.472058e-02 
2.430350e-01 2.554639e-01 4.773987e-01 
4.428728e-01 2.348278e-01 3.831774e-01 
4.495801e-01 4.683085e-01 1.246254e-01 
2.574402e-01 4.658725e-02 1.169588e-01 
5.410915e-02 2.116256e-01 3.299742e-01 
5.906490e-02 4.845446e-01 2.018953e-01 
3.594089e-01 4.090006e-01 2.422231e-01 

POINT_DATA 100 
SCALARS radii double
LOOKUP_TABLE default
4.888480e-02 
5.680058e-02 
5.144258e-02 
8.052493e-02 
5.867005e-02 
5.709150e-02 
6.996639e-02 
6.632291e-02 
5.492660e-02 
6.339723e-02 
5.165752e-02 
6.340573e-02 
4.737472e-02 
6.275791e-02 
2.947674e-02 
6.368765e-02 
5.661563e-02 
6.090393e-02 
5.794776e-02 
5.412233e-02 
7.434816e-02 
5.863806e-02 
7.716837e-02 
4.838494e-02 
6.198262e-02 
5.242130e-02 
5.928488e-02 
6.550064e-02 
6.087443e-02 
6.513824e-02 
5.393138e-02 
5.958030e-02 
5.550244e-02 
6.858277e-02 
5.671110e-02 
4.435557e-02 
5.765184e-02 
5.287118e-02 
7.027130e-02 
6.573407e-02 
5.497059e-02 
4.956311e-02 
5.183897e-02 
6.265594e-02 
6.598600e-02 
5.077077e-02 
6.146477e-02 
6.011465e-02 
3.748349e-02 
6.382811e-02 
5.605828e-02 
5.970076e-02 
5.464768e-02 
4.477645e-02 
6.187865e-02 
5.308262e-02 
6.333325e-02 
5.518653e-02 
5.123064e-02 
6.294086e-02 
5.508056e-02 
5.236732e-02 
5.959779e-02 
7.087263e-02 
5.562791e-02 
7.706340e-02 
5.456920e-02 
6.653835e-02 
5.796775e-02 
4.133091e-02 
7.024131e-02 
5.595931e-02 
6.236252e-02 
6.051903e-02 
6.437895e-02 
6.258945e-02 
5.086124e-02 
4.122594e-02 
5.707400e-02 
4.213969e-02 
5.384640e-02 
3.872664e-02 
4.720227e-02 
6.561611e-02 
6.248648e-02 
5.765484e-02 
5.239781e-02 
4.832645e-02 
5.223886e-02 
4.801104e-02 
5.737592e-02 
6.088843e-02 
6.992490e-02 
6.023661e-02 
5.825867e-02 
7.335394e-02 
4.536178e-02 
7.996458e-02 
4.950862e-02 
7.980163e-02 
