# vtk DataFile Version 2.0)
Unstructured grid legacy vtk file with point scalar data
ASCII

DATASET UNSTRUCTURED_GRID
POINTS 80 double 
5.443506e-01 4.448952e-01 4.124496e-01 
-3.512432e-03 3.289835e-01 4.380911e-01 
-1.414669e-02 4.189693e-01 2.372106e-01 
1.031942e-01 2.620163e-01 -4.511953e-02 
1.782032e-01 5.582826e-01 5.357797e-02 
7.228207e-02 5.550741e-01 3.929060e-01 
3.469393e-01 5.386735e-01 1.820443e-01 
3.605951e-01 2.261063e-01 -3.880065e-02 
-1.418299e-02 4.170060e-01 1.405577e-02 
5.000300e-01 4.170060e-01 5.282688e-01 
-1.418299e-02 4.170060e-01 5.282688e-01 
1.626194e-01 1.732801e-01 5.282486e-01 
-1.721248e-02 1.969824e-01 5.014197e-01 
4.970005e-01 1.969824e-01 -1.279330e-02 
-1.721248e-02 1.969824e-01 -1.279330e-02 
-1.742406e-02 2.392821e-01 2.270156e-01 
1.452466e-01 5.263761e-01 2.958795e-01 
-5.877717e-02 4.192061e-01 3.423456e-01 
3.549411e-01 -2.165238e-02 3.644908e-01 
1.868450e-01 5.159095e-01 4.035693e-01 
2.743365e-01 -4.825757e-02 4.558792e-01 
2.743365e-01 4.659554e-01 -5.833377e-02 
5.646766e-01 8.322609e-02 2.832491e-01 
1.188908e-01 -1.147251e-02 4.849159e-01 
1.188908e-01 5.027405e-01 -2.929713e-02 
1.188908e-01 -1.147251e-02 -2.929713e-02 
5.604019e-01 3.020283e-01 6.898162e-02 
4.618895e-02 3.020283e-01 5.831946e-01 
2.714845e-01 1.133210e-01 5.341296e-01 
1.781845e-01 8.006188e-02 -4.103960e-02 
1.770102e-01 3.151917e-01 5.636175e-01 
1.497644e-01 5.485003e-01 1.699161e-01 
4.331137e-01 5.555488e-01 4.229948e-01 
-3.569628e-02 2.045234e-01 1.244092e-01 
-5.572274e-02 1.440292e-01 2.621567e-01 
-1.882819e-02 5.147175e-03 3.692765e-01 
4.953848e-01 5.193602e-01 3.692765e-01 
-1.882819e-02 5.193602e-01 3.692765e-01 
7.149900e-02 7.984038e-02 5.400401e-01 
2.457470e-01 -3.050049e-02 2.307273e-01 
-3.389851e-02 1.850327e-02 6.037402e-03 
4.803145e-01 5.327163e-01 6.037402e-03 
4.803145e-01 1.850327e-02 5.202504e-01 
-3.389851e-02 5.327163e-01 6.037402e-03 
-3.389851e-02 1.850327e-02 5.202504e-01 
4.803145e-01 5.327163e-01 5.202504e-01 
-3.389851e-02 5.327163e-01 5.202504e-01 
1.974077e-01 4.480806e-01 5.483224e-01 
5.551080e-01 4.791630e-01 3.082247e-01 
4.089504e-02 -3.505001e-02 3.082247e-01 
4.341120e-01 3.161215e-01 5.419261e-01 
3.767615e-01 5.668080e-01 6.222657e-02 
3.767615e-01 5.259495e-02 5.764396e-01 
-6.693669e-02 1.381250e-02 2.711065e-01 
4.472763e-01 5.280255e-01 2.711065e-01 
-6.693669e-02 5.280255e-01 2.711065e-01 
5.282903e-01 7.878202e-02 1.545595e-01 
-2.165684e-02 1.060551e-01 3.648853e-01 
-5.668410e-02 3.295282e-01 1.606662e-01 
2.142739e-01 3.675788e-01 -5.028183e-02 
3.689903e-01 4.501183e-01 5.311332e-01 
9.936563e-02 3.874369e-01 -2.054541e-02 
2.723838e-01 5.710843e-01 3.065070e-01 
5.179859e-01 8.844612e-02 4.565222e-01 
5.481907e-01 3.975449e-01 1.565516e-01 
2.826194e-01 5.162188e-01 3.552703e-02 
2.826194e-01 2.005829e-03 5.497400e-01 
2.826194e-01 5.162188e-01 5.497400e-01 
5.621320e-01 3.568567e-01 3.198120e-01 
2.759187e-01 -5.464205e-02 1.235225e-01 
3.928355e-01 1.176965e-01 -3.483363e-02 
3.483556e-01 5.423644e-01 4.719992e-01 
3.483556e-01 2.815139e-02 -4.221381e-02 
2.922343e-01 3.408232e-01 5.417492e-01 
7.783413e-02 -4.343364e-02 8.472058e-02 
2.430350e-01 2.554639e-01 -3.681427e-02 
-6.463286e-02 4.683085e-01 1.246254e-01 
4.495801e-01 -4.590449e-02 1.246254e-01 
5.683221e-01 2.116256e-01 3.299742e-01 
5.906490e-02 -2.966841e-02 2.018953e-01 

POINT_DATA 80 
SCALARS radii double
LOOKUP_TABLE default
5.680058e-02 
6.632291e-02 
5.492660e-02 
6.339723e-02 
5.165752e-02 
6.275791e-02 
6.368765e-02 
6.090393e-02 
5.794776e-02 
5.794776e-02 
5.794776e-02 
5.863806e-02 
7.716837e-02 
7.716837e-02 
7.716837e-02 
4.838494e-02 
6.198262e-02 
5.928488e-02 
6.513824e-02 
5.393138e-02 
5.958030e-02 
5.958030e-02 
5.671110e-02 
5.287118e-02 
5.287118e-02 
5.287118e-02 
7.027130e-02 
7.027130e-02 
6.573407e-02 
4.956311e-02 
6.265594e-02 
6.598600e-02 
5.077077e-02 
6.146477e-02 
6.011465e-02 
3.748349e-02 
3.748349e-02 
3.748349e-02 
6.382811e-02 
5.605828e-02 
5.970076e-02 
5.970076e-02 
5.970076e-02 
5.970076e-02 
5.970076e-02 
5.970076e-02 
5.970076e-02 
6.187865e-02 
5.308262e-02 
5.308262e-02 
6.333325e-02 
6.294086e-02 
6.294086e-02 
7.087263e-02 
7.087263e-02 
7.087263e-02 
7.706340e-02 
5.456920e-02 
7.024131e-02 
5.595931e-02 
6.236252e-02 
6.437895e-02 
6.258945e-02 
4.213969e-02 
3.872664e-02 
4.720227e-02 
4.720227e-02 
4.720227e-02 
6.561611e-02 
5.765484e-02 
5.223886e-02 
4.801104e-02 
4.801104e-02 
5.737592e-02 
6.992490e-02 
6.023661e-02 
7.335394e-02 
7.335394e-02 
7.996458e-02 
4.950862e-02 
